                         Program Version 6.0.0  -   RELEASE  -
|  1> %maxcore  6000
|  2> %pal nprocs 8 end
|  3> ! B3LYP RIJK cc-pVTZ cc-pVTZ/JK tightSCF noautostart miniprint nopop
|  4> %method
|  5> end
|  6> * xyz   0   1
|  7> O       1.176130000e-01   1.552002000e+00   8.649310000e-01
|  8> H       2.793960000e-01   2.151449000e+00   1.599045000e+00
|  9> H       9.632510000e-01   1.520430000e+00   3.541990000e-01
| 10> O      -2.656300000e-02  -1.369287000e+00   9.192090000e-01
| 11> H      -8.759200000e-01  -1.529241000e+00   4.638590000e-01
| 12> H      -4.796800000e-02  -4.209720000e-01   1.118927000e+00
| 13> O      -2.331117000e+00   1.360418000e+00  -4.336650000e-01
| 14> H      -2.343909000e+00   1.884708000e+00  -1.238766000e+00
| 15> H      -1.466018000e+00   1.543880000e+00  -1.880800000e-02
| 16> O      -2.472465000e+00  -1.406461000e+00  -4.340290000e-01
| 17> H      -3.280214000e+00  -1.690609000e+00   2.142000000e-03
| 18> H      -2.546787000e+00  -4.337860000e-01  -5.002670000e-01
| 19> O       2.419101000e+00   1.204125000e+00  -4.666850000e-01
| 20> H       2.557399000e+00   1.499342000e+00  -1.370620000e+00
| 21> H       2.492309000e+00   2.205670000e-01  -4.997300000e-01
| 22> O       2.286417000e+00  -1.480732000e+00  -4.451300000e-01
| 23> H       2.898736000e+00  -2.055343000e+00   2.166200000e-02
| 24> H       1.425830000e+00  -1.570951000e+00   3.130600000e-02
| 25>  *
| 26>
| 27>                          ****END OF INPUT****

CARTESIAN COORDINATES (ANGSTROEM)
---------------------------------
  O      0.117613    1.552002    0.864931
  H      0.279396    2.151449    1.599045
  H      0.963251    1.520430    0.354199
  O     -0.026563   -1.369287    0.919209
  H     -0.875920   -1.529241    0.463859
  H     -0.047968   -0.420972    1.118927
  O     -2.331117    1.360418   -0.433665
  H     -2.343909    1.884708   -1.238766
  H     -1.466018    1.543880   -0.018808
  O     -2.472465   -1.406461   -0.434029
  H     -3.280214   -1.690609    0.002142
  H     -2.546787   -0.433786   -0.500267
  O      2.419101    1.204125   -0.466685
  H      2.557399    1.499342   -1.370620
  H      2.492309    0.220567   -0.499730
  O      2.286417   -1.480732   -0.445130
  H      2.898736   -2.055343    0.021662
  H      1.425830   -1.570951    0.031306

ORBITAL ENERGIES
----------------

  NO   OCC          E(Eh)            E(eV)
   0   2.0000     -19.137174      -520.7490
   1   2.0000     -19.123379      -520.3736
   2   2.0000     -19.122312      -520.3446
   3   2.0000     -19.111033      -520.0376
   4   2.0000     -19.110641      -520.0270
   5   2.0000     -19.098408      -519.6941
   6   2.0000      -1.025902       -27.9162
   7   2.0000      -1.010871       -27.5072
   8   2.0000      -1.006200       -27.3801
   9   2.0000      -0.997223       -27.1358
  10   2.0000      -0.992734       -27.0137
  11   2.0000      -0.977465       -26.5982
  12   2.0000      -0.546391       -14.8681
  13   2.0000      -0.534584       -14.5468
  14   2.0000      -0.530464       -14.4347
  15   2.0000      -0.519965       -14.1490
  16   2.0000      -0.515354       -14.0235
  17   2.0000      -0.501618       -13.6497
  18   2.0000      -0.435067       -11.8388
  19   2.0000      -0.408451       -11.1145
  20   2.0000      -0.397201       -10.8084
  21   2.0000      -0.384993       -10.4762
  22   2.0000      -0.372025       -10.1233
  23   2.0000      -0.350997        -9.5511
  24   2.0000      -0.329088        -8.9549
  25   2.0000      -0.317091        -8.6285
  26   2.0000      -0.315583        -8.5874
  27   2.0000      -0.305899        -8.3239
  28   2.0000      -0.301812        -8.2127
  29   2.0000      -0.293413        -7.9842
  30   0.0000       0.009946         0.2707
  31   0.0000       0.039713         1.0806
  32   0.0000       0.050981         1.3873
  33   0.0000       0.062355         1.6968
  34   0.0000       0.068085         1.8527

Total SCF time: 0 days 0 hours 0 min 10 sec
Finished LeanSCF after  10.9 sec

FINAL SINGLE POINT ENERGY      -458.623313149130

DIPOLE MOMENT
-------------

Method             : SCF
Type of density    : Electron Density
Multiplicity       :   1
Irrep              :   0
Energy             :  -458.6233131491301265 Eh
Relativity type    :
Basis              : AO
                                X                 Y                 Z
Electronic contribution:      0.004824227      -0.175948754      -0.011339365
Nuclear contribution   :      0.058375949       1.164758863      -0.038549118
                        -----------------------------------------
Total Dipole Moment    :      0.063200176       0.988810109      -0.049888483
                        -----------------------------------------
Magnitude (a.u.)       :      0.992082937
Magnitude (Debye)      :      2.521674426

Rotational constants in cm-1:             0.064343             0.036745             0.026834
Rotational constants in MHz :          1928.956360          1101.593629           804.474509

                             ****ORCA TERMINATED NORMALLY****
TOTAL RUN TIME: 0 days 0 hours 0 minutes 14 seconds 502 msec
