                         Program Version 6.0.0  -   RELEASE  -
|  1> %maxcore  6000
|  2> %pal nprocs 8 end
|  3> ! HF RIJK cc-pVTZ cc-pVTZ/JK tightSCF noautostart miniprint nopop
|  4> %method
|  5> end
|  6> * xyz   0   1
|  7> O      -1.726744000e+00  -1.949373000e+00  -2.869670000e-01
|  8> H      -2.049611000e+00  -1.021593000e+00  -3.291060000e-01
|  9> H      -2.494719000e+00  -2.475947000e+00  -5.241700000e-02
| 10> O      -2.590266000e+00   6.225990000e-01  -3.616360000e-01
| 11> H      -1.948340000e+00   1.276484000e+00  -5.295000000e-03
| 12> H      -2.876587000e+00   9.909820000e-01  -1.201544000e+00
| 13> O      -7.946100000e-01   2.415041000e+00   6.106170000e-01
| 14> H       1.344100000e-01   2.266967000e+00   3.279850000e-01
| 15> H      -7.544270000e-01   2.536367000e+00   1.562552000e+00
| 16> O       2.590163000e+00  -6.227360000e-01  -3.619010000e-01
| 17> H       1.948264000e+00  -1.276555000e+00  -5.381000000e-03
| 18> H       2.876251000e+00  -9.911670000e-01  -1.201866000e+00
| 19> O       7.945570000e-01  -2.414847000e+00   6.109890000e-01
| 20> H       7.543780000e-01  -2.535812000e+00   1.562971000e+00
| 21> H      -1.344510000e-01  -2.266742000e+00   3.283010000e-01
| 22> O       1.726922000e+00   1.949301000e+00  -2.867060000e-01
| 23> H       2.495054000e+00   2.475673000e+00  -5.222900000e-02
| 24> H       2.049592000e+00   1.021469000e+00  -3.291440000e-01
| 25>  *
| 26>
| 27>                          ****END OF INPUT****

CARTESIAN COORDINATES (ANGSTROEM)
---------------------------------
  O     -1.726744   -1.949373   -0.286967
  H     -2.049611   -1.021593   -0.329106
  H     -2.494719   -2.475947   -0.052417
  O     -2.590266    0.622599   -0.361636
  H     -1.948340    1.276484   -0.005295
  H     -2.876587    0.990982   -1.201544
  O     -0.794610    2.415041    0.610617
  H      0.134410    2.266967    0.327985
  H     -0.754427    2.536367    1.562552
  O      2.590163   -0.622736   -0.361901
  H      1.948264   -1.276555   -0.005381
  H      2.876251   -0.991167   -1.201866
  O      0.794557   -2.414847    0.610989
  H      0.754378   -2.535812    1.562971
  H     -0.134451   -2.266742    0.328301
  O      1.726922    1.949301   -0.286706
  H      2.495054    2.475673   -0.052229
  H      2.049592    1.021469   -0.329144

ORBITAL ENERGIES
----------------

  NO   OCC          E(Eh)            E(eV)
   0   2.0000     -20.546335      -559.0942
   1   2.0000     -20.546332      -559.0941
   2   2.0000     -20.545068      -559.0597
   3   2.0000     -20.545063      -559.0596
   4   2.0000     -20.544941      -559.0563
   5   2.0000     -20.544932      -559.0560
   6   2.0000      -1.351463       -36.7752
   7   2.0000      -1.344197       -36.5775
   8   2.0000      -1.343429       -36.5566
   9   2.0000      -1.328397       -36.1475
  10   2.0000      -1.327264       -36.1167
  11   2.0000      -1.319413       -35.9031
  12   2.0000      -0.711610       -19.3639
  13   2.0000      -0.711236       -19.3537
  14   2.0000      -0.709821       -19.3152
  15   2.0000      -0.709349       -19.3024
  16   2.0000      -0.707296       -19.2465
  17   2.0000      -0.706779       -19.2324
  18   2.0000      -0.617185       -16.7944
  19   2.0000      -0.599508       -16.3134
  20   2.0000      -0.595515       -16.2048
  21   2.0000      -0.556358       -15.1393
  22   2.0000      -0.552513       -15.0346
  23   2.0000      -0.534608       -14.5474
  24   2.0000      -0.500541       -13.6204
  25   2.0000      -0.499685       -13.5971
  26   2.0000      -0.496294       -13.5048
  27   2.0000      -0.495525       -13.4839
  28   2.0000      -0.494439       -13.4544
  29   2.0000      -0.491742       -13.3810
  30   0.0000       0.129440         3.5222
  31   0.0000       0.153632         4.1805
  32   0.0000       0.158762         4.3201
  33   0.0000       0.180053         4.8995
  34   0.0000       0.186402         5.0723

Total SCF time: 0 days 0 hours 0 min 9 sec
Finished LeanSCF after   9.4 sec

FINAL SINGLE POINT ENERGY      -456.395575048611

DIPOLE MOMENT
-------------

Method             : SCF
Type of density    : Electron Density
Multiplicity       :   1
Irrep              :   0
Energy             :  -456.3955750486111356 Eh
Relativity type    :
Basis              : AO
                                X                 Y                 Z
Electronic contribution:     -0.000002462      -0.000038261      -0.137823994
Nuclear contribution   :     -0.000191443       0.000129848       0.629293774
                        -----------------------------------------
Total Dipole Moment    :     -0.000193905       0.000091588       0.491469780
                        -----------------------------------------
Magnitude (a.u.)       :      0.491469826
Magnitude (Debye)      :      1.249217022

Rotational constants in cm-1:             0.043204             0.041689             0.022765
Rotational constants in MHz :          1295.229949          1249.797250           682.490775

                             ****ORCA TERMINATED NORMALLY****
TOTAL RUN TIME: 0 days 0 hours 0 minutes 12 seconds 863 msec
