                         Program Version 6.0.0  -   RELEASE  -
|  1> %maxcore  6000
|  2> %pal nprocs 8 end
|  3> ! DLPNO-CCSD(T) normalPNO RIJK cc-pVTZ cc-pVTZ/JK cc-pVTZ/C tightSCF noautostart miniprint nopop
|  4> %method
|  5> end
|  6> * xyz   0   1
|  7> O       8.642970000e-01  -1.713818000e+00  -4.733670000e-01
|  8> H       1.149970000e+00  -2.586897000e+00  -7.562990000e-01
|  9> H       1.685273000e+00  -1.201591000e+00  -3.019820000e-01
| 10> O      -7.306970000e-01   4.056690000e-01  -1.636684000e+00
| 11> H      -1.610695000e+00   2.468050000e-01  -1.244929000e+00
| 12> H      -2.647800000e-01  -4.357670000e-01  -1.507301000e+00
| 13> O       5.901240000e-01   1.738583000e+00   2.504310000e-01
| 14> H       4.986940000e-01   2.694291000e+00   2.013210000e-01
| 15> H       6.749400000e-02   1.372619000e+00  -5.126840000e-01
| 16> O      -7.022990000e-01  -4.947210000e-01   1.659451000e+00
| 17> H      -2.826090000e-01   3.632290000e-01   1.492787000e+00
| 18> H      -2.012380000e-01  -1.096535000e+00   1.085954000e+00
| 19> O       2.795840000e+00   1.134420000e-01   7.992500000e-02
| 20> H       3.296432000e+00   1.024640000e-01   9.004060000e-01
| 21> H       2.149178000e+00   8.417560000e-01   1.811250000e-01
| 22> O      -2.890180000e+00   1.527900000e-02   6.304800000e-02
| 23> H      -3.647524000e+00  -5.677560000e-01   1.560790000e-01
| 24> H      -2.256884000e+00  -2.480850000e-01   7.630950000e-01
| 25>  *
| 26>
| 27>                          ****END OF INPUT****

CARTESIAN COORDINATES (ANGSTROEM)
---------------------------------
  O      0.864297   -1.713818   -0.473367
  H      1.149970   -2.586897   -0.756299
  H      1.685273   -1.201591   -0.301982
  O     -0.730697    0.405669   -1.636684
  H     -1.610695    0.246805   -1.244929
  H     -0.264780   -0.435767   -1.507301
  O      0.590124    1.738583    0.250431
  H      0.498694    2.694291    0.201321
  H      0.067494    1.372619   -0.512684
  O     -0.702299   -0.494721    1.659451
  H     -0.282609    0.363229    1.492787
  H     -0.201238   -1.096535    1.085954
  O      2.795840    0.113442    0.079925
  H      3.296432    0.102464    0.900406
  H      2.149178    0.841756    0.181125
  O     -2.890180    0.015279    0.063048
  H     -3.647524   -0.567756    0.156079
  H     -2.256884   -0.248085    0.763095

ORBITAL ENERGIES
----------------

  NO   OCC          E(Eh)            E(eV)
   0   2.0000     -20.568423      -559.6952
   1   2.0000     -20.563984      -559.5745
   2   2.0000     -20.563559      -559.5629
   3   2.0000     -20.544725      -559.0504
   4   2.0000     -20.544655      -559.0485
   5   2.0000     -20.540029      -558.9226
   6   2.0000      -1.368504       -37.2389
   7   2.0000      -1.355162       -36.8758
   8   2.0000      -1.348827       -36.7035
   9   2.0000      -1.339685       -36.4547
  10   2.0000      -1.331637       -36.2357
  11   2.0000      -1.320841       -35.9419
  12   2.0000      -0.741737       -20.1837
  13   2.0000      -0.727595       -19.7989
  14   2.0000      -0.716827       -19.5058
  15   2.0000      -0.713570       -19.4172
  16   2.0000      -0.697316       -18.9749
  17   2.0000      -0.693840       -18.8803
  18   2.0000      -0.632724       -17.2173
  19   2.0000      -0.598965       -16.2987
  20   2.0000      -0.591170       -16.0866
  21   2.0000      -0.576029       -15.6745
  22   2.0000      -0.571703       -15.5568
  23   2.0000      -0.547669       -14.9028
  24   2.0000      -0.518206       -14.1011
  25   2.0000      -0.514037       -13.9877
  26   2.0000      -0.510826       -13.9003
  27   2.0000      -0.496231       -13.5031
  28   2.0000      -0.490835       -13.3563
  29   2.0000      -0.486648       -13.2424
  30   0.0000       0.123899         3.3715
  31   0.0000       0.155798         4.2395
  32   0.0000       0.160787         4.3752
  33   0.0000       0.173279         4.7152
  34   0.0000       0.244739         6.6597

Total SCF time: 0 days 0 hours 0 min 11 sec
Finished LeanSCF after  11.1 sec

E(0)                                       ...   -456.395985590
E(0)                                       ...   -456.395985590
E(CORR)(strong-pairs)                      ...     -1.624790223
E(CORR)(weak-pairs)                        ...     -0.008271183
E(CORR)(corrected)                         ...     -1.633061406
E(TOT)                                     ...   -458.029046996
E(CCSD(T))                                 ...   -458.077529855
FINAL SINGLE POINT ENERGY      -458.077529855426

DIPOLE MOMENT
-------------

Method             : SCF
Type of density    : Electron Density
Multiplicity       :   1
Irrep              :   0
Energy             :  -456.3959855894135558 Eh
Relativity type    :
Basis              : AO
                                X                 Y                 Z
Electronic contribution:     -0.018029306       0.119109598      -0.118196518
Nuclear contribution   :      0.606908267      -0.536319091       0.476080319
                        -----------------------------------------
Total Dipole Moment    :      0.588878961      -0.417209493       0.357883801
                        -----------------------------------------
Magnitude (a.u.)       :      0.805557575
Magnitude (Debye)      :      2.047564634

Rotational constants in cm-1:             0.075389             0.038726             0.036931
Rotational constants in MHz :          2260.092402          1160.975175          1107.150897

                             ****ORCA TERMINATED NORMALLY****
TOTAL RUN TIME: 0 days 0 hours 1 minutes 17 seconds 680 msec
