                         Program Version 6.0.0  -   RELEASE  -
|  1> %maxcore  6000
|  2> %pal nprocs 8 end
|  3> ! B3LYP RIJK cc-pVTZ cc-pVTZ/JK tightSCF noautostart miniprint nopop
|  4> %method
|  5> end
|  6> * xyz   0   1
|  7> O      -1.502169000e+00  -1.913590000e-01   1.434927000e+00
|  8> H      -2.006698000e+00  -4.223270000e-01   2.219847000e+00
|  9> H      -6.010540000e-01  -5.969720000e-01   1.553718000e+00
| 10> O      -1.744575000e+00  -3.823480000e-01  -1.309144000e+00
| 11> H      -2.516835000e+00  -7.667650000e-01  -1.733766000e+00
| 12> H      -1.888941000e+00  -4.796530000e-01  -3.476240000e-01
| 13> O      -5.604090000e-01   2.017830000e+00  -1.219840000e-01
| 14> H      -9.898310000e-01   1.592736000e+00  -8.774190000e-01
| 15> H      -9.477200000e-01   1.533567000e+00   6.252280000e-01
| 16> O       9.648030000e-01  -1.165765000e+00   1.439987000e+00
| 17> H       1.542224000e+00  -3.936920000e-01   1.344373000e+00
| 18> H       9.795570000e-01  -1.522041000e+00   5.278330000e-01
| 19> O       9.747050000e-01  -1.401503000e+00  -1.335970000e+00
| 20> H       1.470709000e+00  -5.709330000e-01  -1.277710000e+00
| 21> H       6.516100000e-02  -1.118951000e+00  -1.522886000e+00
| 22> O       2.002280000e+00   1.057824000e+00  -1.245020000e-01
| 23> H       2.674716000e+00   1.735342000e+00  -2.379950000e-01
| 24> H       1.141637000e+00   1.532266000e+00  -1.401210000e-01
| 25>  *
| 26>
| 27>                          ****END OF INPUT****

CARTESIAN COORDINATES (ANGSTROEM)
---------------------------------
  O     -1.502169   -0.191359    1.434927
  H     -2.006698   -0.422327    2.219847
  H     -0.601054   -0.596972    1.553718
  O     -1.744575   -0.382348   -1.309144
  H     -2.516835   -0.766765   -1.733766
  H     -1.888941   -0.479653   -0.347624
  O     -0.560409    2.017830   -0.121984
  H     -0.989831    1.592736   -0.877419
  H     -0.947720    1.533567    0.625228
  O      0.964803   -1.165765    1.439987
  H      1.542224   -0.393692    1.344373
  H      0.979557   -1.522041    0.527833
  O      0.974705   -1.401503   -1.335970
  H      1.470709   -0.570933   -1.277710
  H      0.065161   -1.118951   -1.522886
  O      2.002280    1.057824   -0.124502
  H      2.674716    1.735342   -0.237995
  H      1.141637    1.532266   -0.140121

ORBITAL ENERGIES
----------------

  NO   OCC          E(Eh)            E(eV)
   0   2.0000     -19.141161      -520.8575
   1   2.0000     -19.136910      -520.7418
   2   2.0000     -19.125607      -520.4342
   3   2.0000     -19.124453      -520.4028
   4   2.0000     -19.114646      -520.1360
   5   2.0000     -19.105154      -519.8777
   6   2.0000      -1.031741       -28.0751
   7   2.0000      -1.018856       -27.7245
   8   2.0000      -1.014624       -27.6093
   9   2.0000      -1.005914       -27.3723
  10   2.0000      -0.996742       -27.1227
  11   2.0000      -0.985638       -26.8206
  12   2.0000      -0.556062       -15.1312
  13   2.0000      -0.540340       -14.7034
  14   2.0000      -0.533804       -14.5255
  15   2.0000      -0.521903       -14.2017
  16   2.0000      -0.510673       -13.8961
  17   2.0000      -0.508037       -13.8244
  18   2.0000      -0.431427       -11.7397
  19   2.0000      -0.424745       -11.5579
  20   2.0000      -0.401577       -10.9275
  21   2.0000      -0.394843       -10.7442
  22   2.0000      -0.382742       -10.4149
  23   2.0000      -0.360652        -9.8139
  24   2.0000      -0.333131        -9.0649
  25   2.0000      -0.330402        -8.9907
  26   2.0000      -0.318719        -8.6728
  27   2.0000      -0.317808        -8.6480
  28   2.0000      -0.310634        -8.4528
  29   2.0000      -0.294065        -8.0019
  30   0.0000       0.005294         0.1441
  31   0.0000       0.037384         1.0173
  32   0.0000       0.044350         1.2068
  33   0.0000       0.095096         2.5877
  34   0.0000       0.099769         2.7148

Total SCF time: 0 days 0 hours 0 min 11 sec
Finished LeanSCF after  11.8 sec

FINAL SINGLE POINT ENERGY      -458.624900592220

DIPOLE MOMENT
-------------

Method             : SCF
Type of density    : Electron Density
Multiplicity       :   1
Irrep              :   0
Energy             :  -458.6249005922199444 Eh
Relativity type    :
Basis              : AO
                                X                 Y                 Z
Electronic contribution:      0.154862004      -0.106756984       0.006030305
Nuclear contribution   :     -1.120644582       0.543713783       0.138879372
                        -----------------------------------------
Total Dipole Moment    :     -0.965782578       0.436956799       0.144909678
                        -----------------------------------------
Magnitude (a.u.)       :      1.069890670
Magnitude (Debye)      :      2.719445966

Rotational constants in cm-1:             0.057134             0.047461             0.045643
Rotational constants in MHz :          1712.820498          1422.851719          1368.343778

                             ****ORCA TERMINATED NORMALLY****
TOTAL RUN TIME: 0 days 0 hours 0 minutes 15 seconds 485 msec
