                         Program Version 6.0.0  -   RELEASE  -
|  1> %maxcore  6000
|  2> %pal nprocs 8 end
|  3> ! DLPNO-CCSD(T) normalPNO RIJK cc-pVTZ cc-pVTZ/JK cc-pVTZ/C tightSCF noautostart miniprint nopop
|  4> %method
|  5> end
|  6> * xyz   0   1
|  7> O       2.403205336e+00   1.327065937e+00  -4.231241288e-01
|  8> H       2.401010264e+00   3.610726372e-01  -5.799178960e-01
|  9> H       3.282470529e+00   1.527552998e+00  -9.144601800e-02
| 10> O       2.068203815e+00  -1.403501626e+00  -6.521599818e-01
| 11> H       1.280961321e+00  -1.567889828e+00  -9.729097410e-02
| 12> H       1.864469421e+00  -1.807462732e+00  -1.500192960e+00
| 13> O      -2.064119691e+00   1.520084401e+00  -4.985515003e-01
| 14> H      -1.268259852e+00   1.582725263e+00   8.372063660e-02
| 15> H      -1.852913461e+00   2.043180673e+00  -1.276440177e+00
| 16> O       8.217708960e-02   1.351190882e+00   1.131671873e+00
| 17> H       9.279954625e-01   1.465587373e+00   6.566010635e-01
| 18> H       5.811693900e-02   4.025609972e-01   1.329065291e+00
| 19> O      -2.318161714e+00  -1.155186876e+00  -5.453543706e-01
| 20> H      -2.309265436e+00  -1.705337451e-01  -6.170936879e-01
| 21> H      -3.229093787e+00  -1.385809650e+00  -3.443798320e-01
| 22> O      -1.643579518e-01  -1.559589949e+00   1.002652463e+00
| 23> H      -2.826661794e-01  -2.232573523e+00   1.678741737e+00
| 24> H      -1.012924185e+00  -1.523033534e+00   4.985855505e-01
| 25>  *
| 26>
| 27>                          ****END OF INPUT****

CARTESIAN COORDINATES (ANGSTROEM)
---------------------------------
  O      2.403205    1.327066   -0.423124
  H      2.401010    0.361073   -0.579918
  H      3.282471    1.527553   -0.091446
  O      2.068204   -1.403502   -0.652160
  H      1.280961   -1.567890   -0.097291
  H      1.864469   -1.807463   -1.500193
  O     -2.064120    1.520084   -0.498552
  H     -1.268260    1.582725    0.083721
  H     -1.852913    2.043181   -1.276440
  O      0.082177    1.351191    1.131672
  H      0.927995    1.465587    0.656601
  H      0.058117    0.402561    1.329065
  O     -2.318162   -1.155187   -0.545354
  H     -2.309265   -0.170534   -0.617094
  H     -3.229094   -1.385810   -0.344380
  O     -0.164358   -1.559590    1.002652
  H     -0.282666   -2.232574    1.678742
  H     -1.012924   -1.523034    0.498586

ORBITAL ENERGIES
----------------

  NO   OCC          E(Eh)            E(eV)
   0   2.0000     -20.570273      -559.7456
   1   2.0000     -20.556579      -559.3730
   2   2.0000     -20.555697      -559.3490
   3   2.0000     -20.545706      -559.0771
   4   2.0000     -20.544686      -559.0493
   5   2.0000     -20.531276      -558.6844
   6   2.0000      -1.366860       -37.1941
   7   2.0000      -1.350274       -36.7428
   8   2.0000      -1.345510       -36.6132
   9   2.0000      -1.335795       -36.3488
  10   2.0000      -1.330818       -36.2134
  11   2.0000      -1.314718       -35.7753
  12   2.0000      -0.738134       -20.0857
  13   2.0000      -0.720456       -19.6046
  14   2.0000      -0.717624       -19.5275
  15   2.0000      -0.708772       -19.2867
  16   2.0000      -0.703491       -19.1430
  17   2.0000      -0.689678       -18.7671
  18   2.0000      -0.625140       -17.0109
  19   2.0000      -0.601223       -16.3601
  20   2.0000      -0.585827       -15.9412
  21   2.0000      -0.577227       -15.7071
  22   2.0000      -0.563242       -15.3266
  23   2.0000      -0.543986       -14.8026
  24   2.0000      -0.518447       -14.1076
  25   2.0000      -0.505800       -13.7635
  26   2.0000      -0.504131       -13.7181
  27   2.0000      -0.496715       -13.5163
  28   2.0000      -0.491946       -13.3865
  29   2.0000      -0.478562       -13.0223
  30   0.0000       0.122807         3.3417
  31   0.0000       0.154993         4.2176
  32   0.0000       0.162023         4.4089
  33   0.0000       0.178680         4.8621
  34   0.0000       0.182164         4.9569

Total SCF time: 0 days 0 hours 0 min 10 sec
Finished LeanSCF after  10.7 sec

E(0)                                       ...   -456.395974999
E(0)                                       ...   -456.395974999
E(CORR)(strong-pairs)                      ...     -1.623689758
E(CORR)(weak-pairs)                        ...     -0.006948859
E(CORR)(corrected)                         ...     -1.630638616
E(TOT)                                     ...   -458.026613615
E(CCSD(T))                                 ...   -458.074863619
FINAL SINGLE POINT ENERGY      -458.074863619111

DIPOLE MOMENT
-------------

Method             : SCF
Type of density    : Electron Density
Multiplicity       :   1
Irrep              :   0
Energy             :  -456.3959749983621919 Eh
Relativity type    :
Basis              : AO
                                X                 Y                 Z
Electronic contribution:     -0.001119096       0.147026836       0.037019779
Nuclear contribution   :     -0.128177488      -1.219199085      -0.241647590
                        -----------------------------------------
Total Dipole Moment    :     -0.129296584      -1.072172249      -0.204627811
                        -----------------------------------------
Magnitude (a.u.)       :      1.099155803
Magnitude (Debye)      :      2.793832022

Rotational constants in cm-1:             0.060736             0.039607             0.029415
Rotational constants in MHz :          1820.830928          1187.379843           881.831549

                             ****ORCA TERMINATED NORMALLY****
TOTAL RUN TIME: 0 days 0 hours 1 minutes 8 seconds 794 msec
