                         Program Version 6.0.0  -   RELEASE  -
|  1> %maxcore  6000
|  2> %pal nprocs 8 end
|  3> ! B3LYP RIJK cc-pVTZ cc-pVTZ/JK tightSCF noautostart miniprint nopop
|  4> %method
|  5> end
|  6> * xyz   0   1
|  7> O      -1.386744106e+00  -2.136811963e+00  -3.756225893e-01
|  8> H      -1.773287157e+00  -3.002427295e+00  -2.236401630e-01
|  9> H      -4.863499895e-01  -2.178955208e+00   1.536017880e-02
| 10> O      -1.132191270e+00   2.212407755e+00   6.482442718e-01
| 11> H      -1.720716624e+00   1.502049242e+00   3.064145725e-01
| 12> H      -1.299291485e+00   2.238632116e+00   1.593790837e+00
| 13> O      -2.726234074e+00   2.257234831e-01  -2.955282394e-01
| 14> H      -3.065099368e+00   3.594784483e-01  -1.184686006e+00
| 15> H      -2.273619036e+00  -6.453266868e-01  -3.243346978e-01
| 16> O       1.386742207e+00   2.136810876e+00  -3.756286314e-01
| 17> H       4.863369901e-01   2.178970634e+00   1.532571880e-02
| 18> H       1.773293424e+00   3.002422055e+00  -2.236436139e-01
| 19> O       1.132157260e+00  -2.212372184e+00   6.483234883e-01
| 20> H       1.720691645e+00  -1.502033628e+00   3.064678630e-01
| 21> H       1.299221225e+00  -2.238531088e+00   1.593878340e+00
| 22> O       2.726213839e+00  -2.257363978e-01  -2.955339749e-01
| 23> H       2.273604040e+00   6.453160882e-01  -3.243422191e-01
| 24> H       3.065036457e+00  -3.595167569e-01  -1.184704192e+00
| 25>  *
| 26>
| 27>                          ****END OF INPUT****

CARTESIAN COORDINATES (ANGSTROEM)
---------------------------------
  O     -1.386744   -2.136812   -0.375623
  H     -1.773287   -3.002427   -0.223640
  H     -0.486350   -2.178955    0.015360
  O     -1.132191    2.212408    0.648244
  H     -1.720717    1.502049    0.306415
  H     -1.299291    2.238632    1.593791
  O     -2.726234    0.225723   -0.295528
  H     -3.065099    0.359478   -1.184686
  H     -2.273619   -0.645327   -0.324335
  O      1.386742    2.136811   -0.375629
  H      0.486337    2.178971    0.015326
  H      1.773293    3.002422   -0.223644
  O      1.132157   -2.212372    0.648323
  H      1.720692   -1.502034    0.306468
  H      1.299221   -2.238531    1.593878
  O      2.726214   -0.225736   -0.295534
  H      2.273604    0.645316   -0.324342
  H      3.065036   -0.359517   -1.184704

ORBITAL ENERGIES
----------------

  NO   OCC          E(Eh)            E(eV)
   0   2.0000     -19.112742      -520.0842
   1   2.0000     -19.112742      -520.0842
   2   2.0000     -19.111493      -520.0502
   3   2.0000     -19.111492      -520.0501
   4   2.0000     -19.111146      -520.0407
   5   2.0000     -19.111146      -520.0407
   6   2.0000      -1.010199       -27.4889
   7   2.0000      -1.004303       -27.3285
   8   2.0000      -1.003103       -27.2958
   9   2.0000      -0.990641       -26.9567
  10   2.0000      -0.989803       -26.9339
  11   2.0000      -0.983153       -26.7529
  12   2.0000      -0.524831       -14.2814
  13   2.0000      -0.523920       -14.2566
  14   2.0000      -0.520922       -14.1750
  15   2.0000      -0.520746       -14.1702
  16   2.0000      -0.517522       -14.0825
  17   2.0000      -0.516697       -14.0600
  18   2.0000      -0.425974       -11.5913
  19   2.0000      -0.408332       -11.1113
  20   2.0000      -0.405641       -11.0381
  21   2.0000      -0.367676       -10.0050
  22   2.0000      -0.364665        -9.9230
  23   2.0000      -0.344798        -9.3824
  24   2.0000      -0.311131        -8.4663
  25   2.0000      -0.308671        -8.3994
  26   2.0000      -0.307925        -8.3791
  27   2.0000      -0.304739        -8.2924
  28   2.0000      -0.301815        -8.2128
  29   2.0000      -0.300996        -8.1905
  30   0.0000       0.016239         0.4419
  31   0.0000       0.041863         1.1391
  32   0.0000       0.044426         1.2089
  33   0.0000       0.067993         1.8502
  34   0.0000       0.071471         1.9448

Total SCF time: 0 days 0 hours 0 min 10 sec
Finished LeanSCF after  10.1 sec

FINAL SINGLE POINT ENERGY      -458.618945709640

DIPOLE MOMENT
-------------

Method             : SCF
Type of density    : Electron Density
Multiplicity       :   1
Irrep              :   0
Energy             :  -458.6189457096400020 Eh
Relativity type    :
Basis              : AO
                                X                 Y                 Z
Electronic contribution:      0.000017593      -0.000009798      -0.117829167
Nuclear contribution   :     -0.000056260       0.000028951       0.380703417
                        -----------------------------------------
Total Dipole Moment    :     -0.000038666       0.000019153       0.262874250
                        -----------------------------------------
Magnitude (a.u.)       :      0.262874253
Magnitude (Debye)      :      0.668173251

Rotational constants in cm-1:             0.044728             0.040593             0.022974
Rotational constants in MHz :          1340.902269          1216.933335           688.747923

                             ****ORCA TERMINATED NORMALLY****
TOTAL RUN TIME: 0 days 0 hours 0 minutes 13 seconds 513 msec
