                         Program Version 6.0.0  -   RELEASE  -
|  1> %maxcore  6000
|  2> %pal nprocs 8 end
|  3> ! DLPNO-CCSD(T) normalPNO RIJK cc-pVTZ cc-pVTZ/JK cc-pVTZ/C tightSCF noautostart miniprint nopop
|  4> %method
|  5> end
|  6> * xyz   0   1
|  7> O       1.176130000e-01   1.552002000e+00   8.649310000e-01
|  8> H       2.793960000e-01   2.151449000e+00   1.599045000e+00
|  9> H       9.632510000e-01   1.520430000e+00   3.541990000e-01
| 10> O      -2.656300000e-02  -1.369287000e+00   9.192090000e-01
| 11> H      -8.759200000e-01  -1.529241000e+00   4.638590000e-01
| 12> H      -4.796800000e-02  -4.209720000e-01   1.118927000e+00
| 13> O      -2.331117000e+00   1.360418000e+00  -4.336650000e-01
| 14> H      -2.343909000e+00   1.884708000e+00  -1.238766000e+00
| 15> H      -1.466018000e+00   1.543880000e+00  -1.880800000e-02
| 16> O      -2.472465000e+00  -1.406461000e+00  -4.340290000e-01
| 17> H      -3.280214000e+00  -1.690609000e+00   2.142000000e-03
| 18> H      -2.546787000e+00  -4.337860000e-01  -5.002670000e-01
| 19> O       2.419101000e+00   1.204125000e+00  -4.666850000e-01
| 20> H       2.557399000e+00   1.499342000e+00  -1.370620000e+00
| 21> H       2.492309000e+00   2.205670000e-01  -4.997300000e-01
| 22> O       2.286417000e+00  -1.480732000e+00  -4.451300000e-01
| 23> H       2.898736000e+00  -2.055343000e+00   2.166200000e-02
| 24> H       1.425830000e+00  -1.570951000e+00   3.130600000e-02
| 25>  *
| 26>
| 27>                          ****END OF INPUT****

CARTESIAN COORDINATES (ANGSTROEM)
---------------------------------
  O      0.117613    1.552002    0.864931
  H      0.279396    2.151449    1.599045
  H      0.963251    1.520430    0.354199
  O     -0.026563   -1.369287    0.919209
  H     -0.875920   -1.529241    0.463859
  H     -0.047968   -0.420972    1.118927
  O     -2.331117    1.360418   -0.433665
  H     -2.343909    1.884708   -1.238766
  H     -1.466018    1.543880   -0.018808
  O     -2.472465   -1.406461   -0.434029
  H     -3.280214   -1.690609    0.002142
  H     -2.546787   -0.433786   -0.500267
  O      2.419101    1.204125   -0.466685
  H      2.557399    1.499342   -1.370620
  H      2.492309    0.220567   -0.499730
  O      2.286417   -1.480732   -0.445130
  H      2.898736   -2.055343    0.021662
  H      1.425830   -1.570951    0.031306

ORBITAL ENERGIES
----------------

  NO   OCC          E(Eh)            E(eV)
   0   2.0000     -20.568754      -559.7043
   1   2.0000     -20.557019      -559.3849
   2   2.0000     -20.555498      -559.3435
   3   2.0000     -20.544252      -559.0375
   4   2.0000     -20.543855      -559.0267
   5   2.0000     -20.531296      -558.6850
   6   2.0000      -1.365931       -37.1689
   7   2.0000      -1.350181       -36.7403
   8   2.0000      -1.344617       -36.5889
   9   2.0000      -1.335529       -36.3416
  10   2.0000      -1.330178       -36.1960
  11   2.0000      -1.314358       -35.7655
  12   2.0000      -0.734568       -19.9886
  13   2.0000      -0.722218       -19.6525
  14   2.0000      -0.718853       -19.5610
  15   2.0000      -0.707693       -19.2573
  16   2.0000      -0.703240       -19.1361
  17   2.0000      -0.689207       -18.7543
  18   2.0000      -0.628414       -17.1000
  19   2.0000      -0.600312       -16.3353
  20   2.0000      -0.587651       -15.9908
  21   2.0000      -0.574689       -15.6381
  22   2.0000      -0.561297       -15.2737
  23   2.0000      -0.539161       -14.6713
  24   2.0000      -0.516350       -14.0506
  25   2.0000      -0.506494       -13.7824
  26   2.0000      -0.505844       -13.7647
  27   2.0000      -0.494775       -13.4635
  28   2.0000      -0.491232       -13.3671
  29   2.0000      -0.480969       -13.0878
  30   0.0000       0.125099         3.4041
  31   0.0000       0.154761         4.2113
  32   0.0000       0.165526         4.5042
  33   0.0000       0.176159         4.7935
  34   0.0000       0.181992         4.9522

Total SCF time: 0 days 0 hours 0 min 10 sec
Finished LeanSCF after  10.6 sec

E(0)                                       ...   -456.396611811
E(0)                                       ...   -456.396611811
E(CORR)(strong-pairs)                      ...     -1.623487973
E(CORR)(weak-pairs)                        ...     -0.006917535
E(CORR)(corrected)                         ...     -1.630405508
E(TOT)                                     ...   -458.027017319
E(CCSD(T))                                 ...   -458.075230660
FINAL SINGLE POINT ENERGY      -458.075230659994

DIPOLE MOMENT
-------------

Method             : SCF
Type of density    : Electron Density
Multiplicity       :   1
Irrep              :   0
Energy             :  -456.3966118107036891 Eh
Relativity type    :
Basis              : AO
                                X                 Y                 Z
Electronic contribution:      0.012014379      -0.148038034      -0.006925833
Nuclear contribution   :      0.058375949       1.164758863      -0.038549118
                        -----------------------------------------
Total Dipole Moment    :      0.070390328       1.016720829      -0.045474951
                        -----------------------------------------
Magnitude (a.u.)       :      1.020168620
Magnitude (Debye)      :      2.593062559

Rotational constants in cm-1:             0.064343             0.036745             0.026834
Rotational constants in MHz :          1928.956360          1101.593629           804.474509

                             ****ORCA TERMINATED NORMALLY****
TOTAL RUN TIME: 0 days 0 hours 1 minutes 7 seconds 861 msec
