                         Program Version 6.0.0  -   RELEASE  -
|  1> %maxcore  6000
|  2> %pal nprocs 8 end
|  3> ! B3LYP RIJK cc-pVTZ cc-pVTZ/JK tightSCF noautostart miniprint nopop
|  4> %method
|  5> end
|  6> * xyz   0   1
|  7> O      -1.726744000e+00  -1.949373000e+00  -2.869670000e-01
|  8> H      -2.049611000e+00  -1.021593000e+00  -3.291060000e-01
|  9> H      -2.494719000e+00  -2.475947000e+00  -5.241700000e-02
| 10> O      -2.590266000e+00   6.225990000e-01  -3.616360000e-01
| 11> H      -1.948340000e+00   1.276484000e+00  -5.295000000e-03
| 12> H      -2.876587000e+00   9.909820000e-01  -1.201544000e+00
| 13> O      -7.946100000e-01   2.415041000e+00   6.106170000e-01
| 14> H       1.344100000e-01   2.266967000e+00   3.279850000e-01
| 15> H      -7.544270000e-01   2.536367000e+00   1.562552000e+00
| 16> O       2.590163000e+00  -6.227360000e-01  -3.619010000e-01
| 17> H       1.948264000e+00  -1.276555000e+00  -5.381000000e-03
| 18> H       2.876251000e+00  -9.911670000e-01  -1.201866000e+00
| 19> O       7.945570000e-01  -2.414847000e+00   6.109890000e-01
| 20> H       7.543780000e-01  -2.535812000e+00   1.562971000e+00
| 21> H      -1.344510000e-01  -2.266742000e+00   3.283010000e-01
| 22> O       1.726922000e+00   1.949301000e+00  -2.867060000e-01
| 23> H       2.495054000e+00   2.475673000e+00  -5.222900000e-02
| 24> H       2.049592000e+00   1.021469000e+00  -3.291440000e-01
| 25>  *
| 26>
| 27>                          ****END OF INPUT****

CARTESIAN COORDINATES (ANGSTROEM)
---------------------------------
  O     -1.726744   -1.949373   -0.286967
  H     -2.049611   -1.021593   -0.329106
  H     -2.494719   -2.475947   -0.052417
  O     -2.590266    0.622599   -0.361636
  H     -1.948340    1.276484   -0.005295
  H     -2.876587    0.990982   -1.201544
  O     -0.794610    2.415041    0.610617
  H      0.134410    2.266967    0.327985
  H     -0.754427    2.536367    1.562552
  O      2.590163   -0.622736   -0.361901
  H      1.948264   -1.276555   -0.005381
  H      2.876251   -0.991167   -1.201866
  O      0.794557   -2.414847    0.610989
  H      0.754378   -2.535812    1.562971
  H     -0.134451   -2.266742    0.328301
  O      1.726922    1.949301   -0.286706
  H      2.495054    2.475673   -0.052229
  H      2.049592    1.021469   -0.329144

ORBITAL ENERGIES
----------------

  NO   OCC          E(Eh)            E(eV)
   0   2.0000     -19.113170      -520.0958
   1   2.0000     -19.113167      -520.0957
   2   2.0000     -19.111815      -520.0589
   3   2.0000     -19.111810      -520.0588
   4   2.0000     -19.111256      -520.0437
   5   2.0000     -19.111247      -520.0435
   6   2.0000      -1.010474       -27.4964
   7   2.0000      -1.004502       -27.3339
   8   2.0000      -1.003446       -27.3052
   9   2.0000      -0.991074       -26.9685
  10   2.0000      -0.989793       -26.9336
  11   2.0000      -0.983311       -26.7572
  12   2.0000      -0.524441       -14.2708
  13   2.0000      -0.523747       -14.2519
  14   2.0000      -0.521011       -14.1774
  15   2.0000      -0.520815       -14.1721
  16   2.0000      -0.518825       -14.1179
  17   2.0000      -0.518052       -14.0969
  18   2.0000      -0.424531       -11.5521
  19   2.0000      -0.407974       -11.1015
  20   2.0000      -0.404825       -11.0158
  21   2.0000      -0.368759       -10.0344
  22   2.0000      -0.365540        -9.9468
  23   2.0000      -0.347044        -9.4436
  24   2.0000      -0.310369        -8.4456
  25   2.0000      -0.308123        -8.3844
  26   2.0000      -0.307728        -8.3737
  27   2.0000      -0.304409        -8.2834
  28   2.0000      -0.303312        -8.2535
  29   2.0000      -0.301530        -8.2050
  30   0.0000       0.015829         0.4307
  31   0.0000       0.040832         1.1111
  32   0.0000       0.044071         1.1992
  33   0.0000       0.067812         1.8453
  34   0.0000       0.072026         1.9599

Total SCF time: 0 days 0 hours 0 min 10 sec
Finished LeanSCF after  10.1 sec

FINAL SINGLE POINT ENERGY      -458.619072841289

DIPOLE MOMENT
-------------

Method             : SCF
Type of density    : Electron Density
Multiplicity       :   1
Irrep              :   0
Energy             :  -458.6190728412885846 Eh
Relativity type    :
Basis              : AO
                                X                 Y                 Z
Electronic contribution:     -0.000003071      -0.000045629      -0.166898306
Nuclear contribution   :     -0.000191443       0.000129848       0.629293774
                        -----------------------------------------
Total Dipole Moment    :     -0.000194514       0.000084219       0.462395468
                        -----------------------------------------
Magnitude (a.u.)       :      0.462395516
Magnitude (Debye)      :      1.175315999

Rotational constants in cm-1:             0.043204             0.041689             0.022765
Rotational constants in MHz :          1295.229949          1249.797250           682.490775

                             ****ORCA TERMINATED NORMALLY****
TOTAL RUN TIME: 0 days 0 hours 0 minutes 13 seconds 658 msec
