                         Program Version 6.0.0  -   RELEASE  -
|  1> %maxcore  6000
|  2> %pal nprocs 8 end
|  3> ! B3LYP RIJK cc-pVTZ cc-pVTZ/JK tightSCF noautostart miniprint nopop
|  4> %method
|  5> end
|  6> * xyz   0   1
|  7> O      -1.021998000e+00   1.608318000e+00  -4.566780000e-01
|  8> H      -3.478700000e-02   1.695742000e+00  -3.760420000e-01
|  9> H      -1.326789000e+00   2.461744000e+00  -7.781630000e-01
| 10> O      -9.409400000e-02  -1.928019000e+00   4.939610000e-01
| 11> H      -5.305210000e-01  -1.352198000e+00   1.145180000e+00
| 12> H      -5.829610000e-01  -1.741144000e+00  -3.269430000e-01
| 13> O       1.621813000e+00   1.696837000e+00  -2.075700000e-01
| 14> H       1.950152000e+00   7.651540000e-01  -1.629780000e-01
| 15> H       1.966189000e+00   2.111332000e+00   5.886980000e-01
| 16> O       2.340853000e+00  -8.677180000e-01   6.047900000e-02
| 17> H       1.486938000e+00  -1.336848000e+00   2.315050000e-01
| 18> H       2.784035000e+00  -1.379201000e+00  -6.212530000e-01
| 19> O      -1.335648000e+00   1.818530000e-01   1.956564000e+00
| 20> H      -2.199557000e+00   1.948820000e-01   2.376682000e+00
| 21> H      -1.401914000e+00   7.927140000e-01   1.201738000e+00
| 22> O      -1.331460000e+00  -8.509650000e-01  -1.805075000e+00
| 23> H      -1.328990000e+00   6.249800000e-02  -1.465517000e+00
| 24> H      -2.217520000e+00  -9.971280000e-01  -2.146353000e+00
| 25>  *
| 26>
| 27>                          ****END OF INPUT****

CARTESIAN COORDINATES (ANGSTROEM)
---------------------------------
  O     -1.021998    1.608318   -0.456678
  H     -0.034787    1.695742   -0.376042
  H     -1.326789    2.461744   -0.778163
  O     -0.094094   -1.928019    0.493961
  H     -0.530521   -1.352198    1.145180
  H     -0.582961   -1.741144   -0.326943
  O      1.621813    1.696837   -0.207570
  H      1.950152    0.765154   -0.162978
  H      1.966189    2.111332    0.588698
  O      2.340853   -0.867718    0.060479
  H      1.486938   -1.336848    0.231505
  H      2.784035   -1.379201   -0.621253
  O     -1.335648    0.181853    1.956564
  H     -2.199557    0.194882    2.376682
  H     -1.401914    0.792714    1.201738
  O     -1.331460   -0.850965   -1.805075
  H     -1.328990    0.062498   -1.465517
  H     -2.217520   -0.997128   -2.146353

ORBITAL ENERGIES
----------------

  NO   OCC          E(Eh)            E(eV)
   0   2.0000     -19.138809      -520.7935
   1   2.0000     -19.119771      -520.2754
   2   2.0000     -19.119466      -520.2671
   3   2.0000     -19.118964      -520.2535
   4   2.0000     -19.106888      -519.9249
   5   2.0000     -19.094494      -519.5876
   6   2.0000      -1.026862       -27.9423
   7   2.0000      -1.006494       -27.3881
   8   2.0000      -1.004538       -27.3349
   9   2.0000      -1.003728       -27.3128
  10   2.0000      -0.989780       -26.9333
  11   2.0000      -0.974370       -26.5140
  12   2.0000      -0.549184       -14.9441
  13   2.0000      -0.527910       -14.3652
  14   2.0000      -0.527620       -14.3573
  15   2.0000      -0.525055       -14.2875
  16   2.0000      -0.512274       -13.9397
  17   2.0000      -0.498069       -13.5531
  18   2.0000      -0.432633       -11.7725
  19   2.0000      -0.412585       -11.2270
  20   2.0000      -0.388239       -10.5645
  21   2.0000      -0.385732       -10.4963
  22   2.0000      -0.375235       -10.2107
  23   2.0000      -0.351241        -9.5578
  24   2.0000      -0.332650        -9.0519
  25   2.0000      -0.313831        -8.5398
  26   2.0000      -0.309553        -8.4234
  27   2.0000      -0.308184        -8.3861
  28   2.0000      -0.302972        -8.2443
  29   2.0000      -0.288279        -7.8445
  30   0.0000       0.006100         0.1660
  31   0.0000       0.046683         1.2703
  32   0.0000       0.050384         1.3710
  33   0.0000       0.051790         1.4093
  34   0.0000       0.074114         2.0167

Total SCF time: 0 days 0 hours 0 min 8 sec
Finished LeanSCF after   8.7 sec

FINAL SINGLE POINT ENERGY      -458.621824647046

DIPOLE MOMENT
-------------

Method             : SCF
Type of density    : Electron Density
Multiplicity       :   1
Irrep              :   0
Energy             :  -458.6218246470463100 Eh
Relativity type    :
Basis              : AO
                                X                 Y                 Z
Electronic contribution:      0.398063862      -0.202185601       0.060927882
Nuclear contribution   :     -1.493801843       1.329225834      -0.346934572
                        -----------------------------------------
Total Dipole Moment    :     -1.095737982       1.127040232      -0.286006690
                        -----------------------------------------
Magnitude (a.u.)       :      1.597704990
Magnitude (Debye)      :      4.061043349

Rotational constants in cm-1:             0.050511             0.044886             0.038954
Rotational constants in MHz :          1514.276533          1345.634164          1167.819844

                             ****ORCA TERMINATED NORMALLY****
TOTAL RUN TIME: 0 days 0 hours 0 minutes 13 seconds 434 msec
