                         Program Version 6.0.0  -   RELEASE  -
|  1> %maxcore  6000
|  2> %pal nprocs 8 end
|  3> ! DLPNO-CCSD(T) normalPNO RIJK cc-pVTZ cc-pVTZ/JK cc-pVTZ/C tightSCF noautostart miniprint nopop
|  4> %method
|  5> end
|  6> * xyz   0   1
|  7> O       0.000000000e+00   2.696547000e+00   1.395020000e-01
|  8> H      -8.425140000e-01   2.202380000e+00   2.595300000e-02
|  9> H      -1.286100000e-01   3.230175000e+00   9.277890000e-01
| 10> O      -2.335278000e+00  -1.348274000e+00   1.395020000e-01
| 11> H      -2.733108000e+00  -1.726467000e+00   9.277890000e-01
| 12> H      -1.486060000e+00  -1.830828000e+00   2.595300000e-02
| 13> O       2.335278000e+00   1.348274000e+00  -1.395020000e-01
| 14> H       1.486060000e+00   1.830828000e+00  -2.595300000e-02
| 15> H       2.733108000e+00   1.726467000e+00  -9.277890000e-01
| 16> O       0.000000000e+00  -2.696547000e+00  -1.395020000e-01
| 17> H       1.286100000e-01  -3.230175000e+00  -9.277890000e-01
| 18> H       8.425140000e-01  -2.202380000e+00  -2.595300000e-02
| 19> O       2.335278000e+00  -1.348274000e+00   1.395020000e-01
| 20> H       2.328574000e+00  -3.715510000e-01   2.595300000e-02
| 21> H       2.861718000e+00  -1.503708000e+00   9.277890000e-01
| 22> O      -2.335278000e+00   1.348274000e+00  -1.395020000e-01
| 23> H      -2.328574000e+00   3.715510000e-01  -2.595300000e-02
| 24> H      -2.861718000e+00   1.503708000e+00  -9.277890000e-01
| 25>  *
| 26>
| 27>                          ****END OF INPUT****

CARTESIAN COORDINATES (ANGSTROEM)
---------------------------------
  O      0.000000    2.696547    0.139502
  H     -0.842514    2.202380    0.025953
  H     -0.128610    3.230175    0.927789
  O     -2.335278   -1.348274    0.139502
  H     -2.733108   -1.726467    0.927789
  H     -1.486060   -1.830828    0.025953
  O      2.335278    1.348274   -0.139502
  H      1.486060    1.830828   -0.025953
  H      2.733108    1.726467   -0.927789
  O      0.000000   -2.696547   -0.139502
  H      0.128610   -3.230175   -0.927789
  H      0.842514   -2.202380   -0.025953
  O      2.335278   -1.348274    0.139502
  H      2.328574   -0.371551    0.025953
  H      2.861718   -1.503708    0.927789
  O     -2.335278    1.348274   -0.139502
  H     -2.328574    0.371551   -0.025953
  H     -2.861718    1.503708   -0.927789

ORBITAL ENERGIES
----------------

  NO   OCC          E(Eh)            E(eV)
   0   2.0000     -20.545132      -559.0615
   1   2.0000     -20.545127      -559.0613
   2   2.0000     -20.545127      -559.0613
   3   2.0000     -20.545117      -559.0611
   4   2.0000     -20.545117      -559.0611
   5   2.0000     -20.545112      -559.0609
   6   2.0000      -1.351400       -36.7735
   7   2.0000      -1.343688       -36.5636
   8   2.0000      -1.343688       -36.5636
   9   2.0000      -1.327467       -36.1222
  10   2.0000      -1.327467       -36.1222
  11   2.0000      -1.318877       -35.8885
  12   2.0000      -0.712527       -19.3889
  13   2.0000      -0.709101       -19.2956
  14   2.0000      -0.709100       -19.2956
  15   2.0000      -0.707698       -19.2575
  16   2.0000      -0.706960       -19.2373
  17   2.0000      -0.706959       -19.2373
  18   2.0000      -0.621364       -16.9082
  19   2.0000      -0.599888       -16.3238
  20   2.0000      -0.599888       -16.3238
  21   2.0000      -0.552006       -15.0208
  22   2.0000      -0.552006       -15.0208
  23   2.0000      -0.529295       -14.4028
  24   2.0000      -0.497978       -13.5507
  25   2.0000      -0.497978       -13.5507
  26   2.0000      -0.497653       -13.5418
  27   2.0000      -0.497653       -13.5418
  28   2.0000      -0.496629       -13.5140
  29   2.0000      -0.492753       -13.4085
  30   0.0000       0.134069         3.6482
  31   0.0000       0.157230         4.2784
  32   0.0000       0.157230         4.2784
  33   0.0000       0.185846         5.0571
  34   0.0000       0.185846         5.0571

Total SCF time: 0 days 0 hours 0 min 10 sec
Finished LeanSCF after  10.2 sec

E(0)                                       ...   -456.397215548
E(0)                                       ...   -456.397215548
E(CORR)(strong-pairs)                      ...     -1.621134514
E(CORR)(weak-pairs)                        ...     -0.005854752
E(CORR)(corrected)                         ...     -1.626989266
E(TOT)                                     ...   -458.024204814
E(CCSD(T))                                 ...   -458.071957176
FINAL SINGLE POINT ENERGY      -458.071957176417

DIPOLE MOMENT
-------------

Method             : SCF
Type of density    : Electron Density
Multiplicity       :   1
Irrep              :   0
Energy             :  -456.3972155473707062 Eh
Relativity type    :
Basis              : AO
                                X                 Y                 Z
Electronic contribution:     -0.000000000       0.000000000      -0.000000000
Nuclear contribution   :     -0.000000000      -0.000000000      -0.000000000
                        -----------------------------------------
Total Dipole Moment    :     -0.000000000       0.000000000      -0.000000000
                        -----------------------------------------
Magnitude (a.u.)       :      0.000000000
Magnitude (Debye)      :      0.000000001

Rotational constants in cm-1:             0.041675             0.041675             0.021209
Rotational constants in MHz :          1249.396644          1249.396159           635.824399

                             ****ORCA TERMINATED NORMALLY****
TOTAL RUN TIME: 0 days 0 hours 0 minutes 58 seconds 202 msec
