                         Program Version 6.0.0  -   RELEASE  -
|  1> %maxcore  6000
|  2> %pal nprocs 8 end
|  3> ! B3LYP RIJK cc-pVTZ cc-pVTZ/JK tightSCF noautostart miniprint nopop
|  4> %method
|  5> end
|  6> * xyz   0   1
|  7> O       8.642970000e-01  -1.713818000e+00  -4.733670000e-01
|  8> H       1.149970000e+00  -2.586897000e+00  -7.562990000e-01
|  9> H       1.685273000e+00  -1.201591000e+00  -3.019820000e-01
| 10> O      -7.306970000e-01   4.056690000e-01  -1.636684000e+00
| 11> H      -1.610695000e+00   2.468050000e-01  -1.244929000e+00
| 12> H      -2.647800000e-01  -4.357670000e-01  -1.507301000e+00
| 13> O       5.901240000e-01   1.738583000e+00   2.504310000e-01
| 14> H       4.986940000e-01   2.694291000e+00   2.013210000e-01
| 15> H       6.749400000e-02   1.372619000e+00  -5.126840000e-01
| 16> O      -7.022990000e-01  -4.947210000e-01   1.659451000e+00
| 17> H      -2.826090000e-01   3.632290000e-01   1.492787000e+00
| 18> H      -2.012380000e-01  -1.096535000e+00   1.085954000e+00
| 19> O       2.795840000e+00   1.134420000e-01   7.992500000e-02
| 20> H       3.296432000e+00   1.024640000e-01   9.004060000e-01
| 21> H       2.149178000e+00   8.417560000e-01   1.811250000e-01
| 22> O      -2.890180000e+00   1.527900000e-02   6.304800000e-02
| 23> H      -3.647524000e+00  -5.677560000e-01   1.560790000e-01
| 24> H      -2.256884000e+00  -2.480850000e-01   7.630950000e-01
| 25>  *
| 26>
| 27>                          ****END OF INPUT****

CARTESIAN COORDINATES (ANGSTROEM)
---------------------------------
  O      0.864297   -1.713818   -0.473367
  H      1.149970   -2.586897   -0.756299
  H      1.685273   -1.201591   -0.301982
  O     -0.730697    0.405669   -1.636684
  H     -1.610695    0.246805   -1.244929
  H     -0.264780   -0.435767   -1.507301
  O      0.590124    1.738583    0.250431
  H      0.498694    2.694291    0.201321
  H      0.067494    1.372619   -0.512684
  O     -0.702299   -0.494721    1.659451
  H     -0.282609    0.363229    1.492787
  H     -0.201238   -1.096535    1.085954
  O      2.795840    0.113442    0.079925
  H      3.296432    0.102464    0.900406
  H      2.149178    0.841756    0.181125
  O     -2.890180    0.015279    0.063048
  H     -3.647524   -0.567756    0.156079
  H     -2.256884   -0.248085    0.763095

ORBITAL ENERGIES
----------------

  NO   OCC          E(Eh)            E(eV)
   0   2.0000     -19.136103      -520.7198
   1   2.0000     -19.132236      -520.6146
   2   2.0000     -19.130743      -520.5740
   3   2.0000     -19.111900      -520.0612
   4   2.0000     -19.110043      -520.0107
   5   2.0000     -19.108330      -519.9641
   6   2.0000      -1.028303       -27.9815
   7   2.0000      -1.016891       -27.6710
   8   2.0000      -1.010735       -27.5035
   9   2.0000      -1.001341       -27.2479
  10   2.0000      -0.993704       -27.0401
  11   2.0000      -0.984499       -26.7896
  12   2.0000      -0.553276       -15.0554
  13   2.0000      -0.540264       -14.7013
  14   2.0000      -0.529919       -14.4198
  15   2.0000      -0.525138       -14.2897
  16   2.0000      -0.511403       -13.9160
  17   2.0000      -0.506936       -13.7944
  18   2.0000      -0.437330       -11.9004
  19   2.0000      -0.408328       -11.1112
  20   2.0000      -0.401243       -10.9184
  21   2.0000      -0.383987       -10.4488
  22   2.0000      -0.382097       -10.3974
  23   2.0000      -0.359493        -9.7823
  24   2.0000      -0.329548        -8.9675
  25   2.0000      -0.326754        -8.8914
  26   2.0000      -0.322078        -8.7642
  27   2.0000      -0.308769        -8.4020
  28   2.0000      -0.301206        -8.1962
  29   2.0000      -0.299596        -8.1524
  30   0.0000       0.007437         0.2024
  31   0.0000       0.041581         1.1315
  32   0.0000       0.045989         1.2514
  33   0.0000       0.059181         1.6104
  34   0.0000       0.113638         3.0922

Total SCF time: 0 days 0 hours 0 min 11 sec
Finished LeanSCF after  11.6 sec

FINAL SINGLE POINT ENERGY      -458.624045376907

DIPOLE MOMENT
-------------

Method             : SCF
Type of density    : Electron Density
Multiplicity       :   1
Irrep              :   0
Energy             :  -458.6240453769074179 Eh
Relativity type    :
Basis              : AO
                                X                 Y                 Z
Electronic contribution:     -0.012671869       0.146086226      -0.139567354
Nuclear contribution   :      0.606908267      -0.536319091       0.476080319
                        -----------------------------------------
Total Dipole Moment    :      0.594236398      -0.390232865       0.336512966
                        -----------------------------------------
Magnitude (a.u.)       :      0.786536433
Magnitude (Debye)      :      1.999216733

Rotational constants in cm-1:             0.075389             0.038726             0.036931
Rotational constants in MHz :          2260.092402          1160.975175          1107.150897

                             ****ORCA TERMINATED NORMALLY****
TOTAL RUN TIME: 0 days 0 hours 0 minutes 15 seconds 337 msec
