                         Program Version 6.0.0  -   RELEASE  -
|  1> %maxcore  6000
|  2> %pal nprocs 8 end
|  3> ! DLPNO-CCSD(T) normalPNO RIJK cc-pVTZ cc-pVTZ/JK cc-pVTZ/C tightSCF noautostart miniprint nopop
|  4> %method
|  5> end
|  6> * xyz   0   1
|  7> O      -1.021998000e+00   1.608318000e+00  -4.566780000e-01
|  8> H      -3.478700000e-02   1.695742000e+00  -3.760420000e-01
|  9> H      -1.326789000e+00   2.461744000e+00  -7.781630000e-01
| 10> O      -9.409400000e-02  -1.928019000e+00   4.939610000e-01
| 11> H      -5.305210000e-01  -1.352198000e+00   1.145180000e+00
| 12> H      -5.829610000e-01  -1.741144000e+00  -3.269430000e-01
| 13> O       1.621813000e+00   1.696837000e+00  -2.075700000e-01
| 14> H       1.950152000e+00   7.651540000e-01  -1.629780000e-01
| 15> H       1.966189000e+00   2.111332000e+00   5.886980000e-01
| 16> O       2.340853000e+00  -8.677180000e-01   6.047900000e-02
| 17> H       1.486938000e+00  -1.336848000e+00   2.315050000e-01
| 18> H       2.784035000e+00  -1.379201000e+00  -6.212530000e-01
| 19> O      -1.335648000e+00   1.818530000e-01   1.956564000e+00
| 20> H      -2.199557000e+00   1.948820000e-01   2.376682000e+00
| 21> H      -1.401914000e+00   7.927140000e-01   1.201738000e+00
| 22> O      -1.331460000e+00  -8.509650000e-01  -1.805075000e+00
| 23> H      -1.328990000e+00   6.249800000e-02  -1.465517000e+00
| 24> H      -2.217520000e+00  -9.971280000e-01  -2.146353000e+00
| 25>  *
| 26>
| 27>                          ****END OF INPUT****

CARTESIAN COORDINATES (ANGSTROEM)
---------------------------------
  O     -1.021998    1.608318   -0.456678
  H     -0.034787    1.695742   -0.376042
  H     -1.326789    2.461744   -0.778163
  O     -0.094094   -1.928019    0.493961
  H     -0.530521   -1.352198    1.145180
  H     -0.582961   -1.741144   -0.326943
  O      1.621813    1.696837   -0.207570
  H      1.950152    0.765154   -0.162978
  H      1.966189    2.111332    0.588698
  O      2.340853   -0.867718    0.060479
  H      1.486938   -1.336848    0.231505
  H      2.784035   -1.379201   -0.621253
  O     -1.335648    0.181853    1.956564
  H     -2.199557    0.194882    2.376682
  H     -1.401914    0.792714    1.201738
  O     -1.331460   -0.850965   -1.805075
  H     -1.328990    0.062498   -1.465517
  H     -2.217520   -0.997128   -2.146353

ORBITAL ENERGIES
----------------

  NO   OCC          E(Eh)            E(eV)
   0   2.0000     -20.570291      -559.7461
   1   2.0000     -20.554298      -559.3109
   2   2.0000     -20.553290      -559.2835
   3   2.0000     -20.551728      -559.2410
   4   2.0000     -20.539747      -558.9149
   5   2.0000     -20.526503      -558.5545
   6   2.0000      -1.366688       -37.1895
   7   2.0000      -1.345453       -36.6116
   8   2.0000      -1.343074       -36.5469
   9   2.0000      -1.342303       -36.5259
  10   2.0000      -1.326958       -36.1084
  11   2.0000      -1.311012       -35.6744
  12   2.0000      -0.737100       -20.0575
  13   2.0000      -0.715596       -19.4724
  14   2.0000      -0.714639       -19.4463
  15   2.0000      -0.712751       -19.3949
  16   2.0000      -0.700075       -19.0500
  17   2.0000      -0.685975       -18.6663
  18   2.0000      -0.624367       -16.9899
  19   2.0000      -0.606458       -16.5026
  20   2.0000      -0.578995       -15.7553
  21   2.0000      -0.575479       -15.6596
  22   2.0000      -0.564240       -15.3537
  23   2.0000      -0.540499       -14.7077
  24   2.0000      -0.519487       -14.1360
  25   2.0000      -0.501740       -13.6530
  26   2.0000      -0.501265       -13.6401
  27   2.0000      -0.498320       -13.5600
  28   2.0000      -0.490688       -13.3523
  29   2.0000      -0.474756       -12.9188
  30   0.0000       0.120250         3.2722
  31   0.0000       0.160941         4.3794
  32   0.0000       0.164926         4.4879
  33   0.0000       0.165914         4.5147
  34   0.0000       0.188873         5.1395

Total SCF time: 0 days 0 hours 0 min 11 sec
Finished LeanSCF after  11.0 sec

E(0)                                       ...   -456.394818032
E(0)                                       ...   -456.394818032
E(CORR)(strong-pairs)                      ...     -1.623861981
E(CORR)(weak-pairs)                        ...     -0.007216728
E(CORR)(corrected)                         ...     -1.631078709
E(TOT)                                     ...   -458.025896741
E(CCSD(T))                                 ...   -458.074172574
FINAL SINGLE POINT ENERGY      -458.074172574321

DIPOLE MOMENT
-------------

Method             : SCF
Type of density    : Electron Density
Multiplicity       :   1
Irrep              :   0
Energy             :  -456.3948180313598186 Eh
Relativity type    :
Basis              : AO
                                X                 Y                 Z
Electronic contribution:      0.327990927      -0.173279233       0.050335243
Nuclear contribution   :     -1.493801843       1.329225834      -0.346934572
                        -----------------------------------------
Total Dipole Moment    :     -1.165810917       1.155946600      -0.296599330
                        -----------------------------------------
Magnitude (a.u.)       :      1.668322151
Magnitude (Debye)      :      4.240537906

Rotational constants in cm-1:             0.050511             0.044886             0.038954
Rotational constants in MHz :          1514.276533          1345.634164          1167.819844

                             ****ORCA TERMINATED NORMALLY****
TOTAL RUN TIME: 0 days 0 hours 1 minutes 9 seconds 953 msec
