                         Program Version 6.0.0  -   RELEASE  -
|  1> %maxcore  6000
|  2> %pal nprocs 8 end
|  3> ! DLPNO-CCSD(T) normalPNO RIJK cc-pVTZ cc-pVTZ/JK cc-pVTZ/C tightSCF noautostart miniprint nopop
|  4> %method
|  5> end
|  6> * xyz   0   1
|  7> O      -1.502169000e+00  -1.913590000e-01   1.434927000e+00
|  8> H      -2.006698000e+00  -4.223270000e-01   2.219847000e+00
|  9> H      -6.010540000e-01  -5.969720000e-01   1.553718000e+00
| 10> O      -1.744575000e+00  -3.823480000e-01  -1.309144000e+00
| 11> H      -2.516835000e+00  -7.667650000e-01  -1.733766000e+00
| 12> H      -1.888941000e+00  -4.796530000e-01  -3.476240000e-01
| 13> O      -5.604090000e-01   2.017830000e+00  -1.219840000e-01
| 14> H      -9.898310000e-01   1.592736000e+00  -8.774190000e-01
| 15> H      -9.477200000e-01   1.533567000e+00   6.252280000e-01
| 16> O       9.648030000e-01  -1.165765000e+00   1.439987000e+00
| 17> H       1.542224000e+00  -3.936920000e-01   1.344373000e+00
| 18> H       9.795570000e-01  -1.522041000e+00   5.278330000e-01
| 19> O       9.747050000e-01  -1.401503000e+00  -1.335970000e+00
| 20> H       1.470709000e+00  -5.709330000e-01  -1.277710000e+00
| 21> H       6.516100000e-02  -1.118951000e+00  -1.522886000e+00
| 22> O       2.002280000e+00   1.057824000e+00  -1.245020000e-01
| 23> H       2.674716000e+00   1.735342000e+00  -2.379950000e-01
| 24> H       1.141637000e+00   1.532266000e+00  -1.401210000e-01
| 25>  *
| 26>
| 27>                          ****END OF INPUT****

CARTESIAN COORDINATES (ANGSTROEM)
---------------------------------
  O     -1.502169   -0.191359    1.434927
  H     -2.006698   -0.422327    2.219847
  H     -0.601054   -0.596972    1.553718
  O     -1.744575   -0.382348   -1.309144
  H     -2.516835   -0.766765   -1.733766
  H     -1.888941   -0.479653   -0.347624
  O     -0.560409    2.017830   -0.121984
  H     -0.989831    1.592736   -0.877419
  H     -0.947720    1.533567    0.625228
  O      0.964803   -1.165765    1.439987
  H      1.542224   -0.393692    1.344373
  H      0.979557   -1.522041    0.527833
  O      0.974705   -1.401503   -1.335970
  H      1.470709   -0.570933   -1.277710
  H      0.065161   -1.118951   -1.522886
  O      2.002280    1.057824   -0.124502
  H      2.674716    1.735342   -0.237995
  H      1.141637    1.532266   -0.140121

ORBITAL ENERGIES
----------------

  NO   OCC          E(Eh)            E(eV)
   0   2.0000     -20.573944      -559.8455
   1   2.0000     -20.568971      -559.7102
   2   2.0000     -20.557966      -559.4107
   3   2.0000     -20.557559      -559.3996
   4   2.0000     -20.547049      -559.1136
   5   2.0000     -20.537342      -558.8495
   6   2.0000      -1.371902       -37.3314
   7   2.0000      -1.356961       -36.9248
   8   2.0000      -1.353196       -36.8223
   9   2.0000      -1.343932       -36.5703
  10   2.0000      -1.333377       -36.2830
  11   2.0000      -1.322117       -35.9766
  12   2.0000      -0.744379       -20.2556
  13   2.0000      -0.727920       -19.8077
  14   2.0000      -0.721336       -19.6286
  15   2.0000      -0.707181       -19.2434
  16   2.0000      -0.697259       -18.9734
  17   2.0000      -0.693558       -18.8727
  18   2.0000      -0.624707       -16.9992
  19   2.0000      -0.617618       -16.8062
  20   2.0000      -0.594716       -16.1831
  21   2.0000      -0.583518       -15.8783
  22   2.0000      -0.574620       -15.6362
  23   2.0000      -0.548899       -14.9363
  24   2.0000      -0.520971       -14.1764
  25   2.0000      -0.519617       -14.1395
  26   2.0000      -0.508359       -13.8331
  27   2.0000      -0.504864       -13.7380
  28   2.0000      -0.496370       -13.5069
  29   2.0000      -0.481144       -13.0926
  30   0.0000       0.123403         3.3580
  31   0.0000       0.152240         4.1427
  32   0.0000       0.158579         4.3151
  33   0.0000       0.219186         5.9643
  34   0.0000       0.229087         6.2338

Total SCF time: 0 days 0 hours 0 min 11 sec
Finished LeanSCF after  11.4 sec

E(0)                                       ...   -456.396533604
E(0)                                       ...   -456.396533604
E(CORR)(strong-pairs)                      ...     -1.625693989
E(CORR)(weak-pairs)                        ...     -0.007916137
E(CORR)(corrected)                         ...     -1.633610126
E(TOT)                                     ...   -458.030143730
E(CCSD(T))                                 ...   -458.078773271
FINAL SINGLE POINT ENERGY      -458.078773271165

DIPOLE MOMENT
-------------

Method             : SCF
Type of density    : Electron Density
Multiplicity       :   1
Irrep              :   0
Energy             :  -456.3965336033358540 Eh
Relativity type    :
Basis              : AO
                                X                 Y                 Z
Electronic contribution:      0.124265194      -0.091420743       0.016891744
Nuclear contribution   :     -1.120644582       0.543713783       0.138879372
                        -----------------------------------------
Total Dipole Moment    :     -0.996379388       0.452293040       0.155771116
                        -----------------------------------------
Magnitude (a.u.)       :      1.105262647
Magnitude (Debye)      :      2.809354387

Rotational constants in cm-1:             0.057134             0.047461             0.045643
Rotational constants in MHz :          1712.820498          1422.851719          1368.343778

                             ****ORCA TERMINATED NORMALLY****
TOTAL RUN TIME: 0 days 0 hours 1 minutes 25 seconds 472 msec
